[
  {
    "atomicNumber": 1,
    "symbol": "H",
    "name": "Hydrogen",
    "group": 1,
    "period": 1,
    "category": "nonmetal",
    "density": "0.0000899 g/cm^3 (gas, STP)",
    "meltingPoint": "-259.16 C",
    "engineeringApplications": [
      "Fuel cells and hydrogen energy storage",
      "Reducing atmosphere for high-temperature processing",
      "Semiconductor passivation processes"
    ]
  },
  {
    "atomicNumber": 2,
    "symbol": "He",
    "name": "Helium",
    "group": 18,
    "period": 1,
    "category": "noble gas",
    "density": "0.0001785 g/cm^3 (gas, STP)",
    "meltingPoint": "No freezing point at 1 atm",
    "engineeringApplications": [
      "Cryogenics for superconducting magnets",
      "Shielding gas for welding and additive manufacturing",
      "Leak detection and pressurization"
    ]
  },
  {
    "atomicNumber": 3,
    "symbol": "Li",
    "name": "Lithium",
    "group": 1,
    "period": 2,
    "category": "alkali metal",
    "density": "0.534 g/cm^3",
    "meltingPoint": "180.54 C",
    "engineeringApplications": [
      "Lithium-ion battery anodes and electrolytes",
      "Lightweight aluminum-lithium aerospace alloys",
      "High-temperature greases and lubricants"
    ]
  },
  {
    "atomicNumber": 4,
    "symbol": "Be",
    "name": "Beryllium",
    "group": 2,
    "period": 2,
    "category": "alkaline earth metal",
    "density": "1.85 g/cm^3",
    "meltingPoint": "1287 C",
    "engineeringApplications": [
      "Aerospace structures requiring stiffness-to-weight",
      "X-ray windows and instrumentation",
      "Be-Cu springs and electrical connectors"
    ]
  },
  {
    "atomicNumber": 5,
    "symbol": "B",
    "name": "Boron",
    "group": 13,
    "period": 2,
    "category": "metalloid",
    "density": "2.34 g/cm^3",
    "meltingPoint": "2076 C",
    "engineeringApplications": [
      "Boron carbide ceramics for armor",
      "Doping for semiconductor devices",
      "Neutron absorption materials"
    ]
  },
  {
    "atomicNumber": 6,
    "symbol": "C",
    "name": "Carbon",
    "group": 14,
    "period": 2,
    "category": "nonmetal",
    "density": "2.26 g/cm^3 (graphite)",
    "meltingPoint": "Sublimes ~3642 C",
    "engineeringApplications": [
      "Carbon fiber composites",
      "Steel strengthening via carburizing",
      "Electrodes and thermal management (graphite)"
    ]
  },
  {
    "atomicNumber": 7,
    "symbol": "N",
    "name": "Nitrogen",
    "group": 15,
    "period": 2,
    "category": "nonmetal",
    "density": "0.0012506 g/cm^3 (gas, STP)",
    "meltingPoint": "-210.00 C",
    "engineeringApplications": [
      "Inerting and purge gas in manufacturing",
      "Nitriding for surface hardening of steels",
      "Liquid nitrogen for cryogenic processing"
    ]
  },
  {
    "atomicNumber": 8,
    "symbol": "O",
    "name": "Oxygen",
    "group": 16,
    "period": 2,
    "category": "nonmetal",
    "density": "0.001429 g/cm^3 (gas, STP)",
    "meltingPoint": "-218.79 C",
    "engineeringApplications": [
      "Steelmaking and oxidation refining",
      "Rocket propulsion (LOX)",
      "Medical oxygen systems"
    ]
  },
  {
    "atomicNumber": 9,
    "symbol": "F",
    "name": "Fluorine",
    "group": 17,
    "period": 2,
    "category": "nonmetal",
    "density": "0.001696 g/cm^3 (gas, STP)",
    "meltingPoint": "-219.67 C",
    "engineeringApplications": [
      "Fluoropolymers for chemical resistance (PTFE family)",
      "Etching and cleaning in semiconductor fabrication",
      "Electrolytes and fluorinated salts"
    ]
  },
  {
    "atomicNumber": 10,
    "symbol": "Ne",
    "name": "Neon",
    "group": 18,
    "period": 2,
    "category": "noble gas",
    "density": "0.0008999 g/cm^3 (gas, STP)",
    "meltingPoint": "-248.59 C",
    "engineeringApplications": [
      "High-voltage indicators and discharge tubes",
      "Cryogenic refrigeration applications",
      "Laser systems"
    ]
  },
  {
    "atomicNumber": 11,
    "symbol": "Na",
    "name": "Sodium",
    "group": 1,
    "period": 3,
    "category": "alkali metal",
    "density": "0.97 g/cm^3",
    "meltingPoint": "97.79 C",
    "engineeringApplications": [
      "Sodium-based heat transfer (specialty reactors)",
      "Sodium vapor lighting",
      "Chemical synthesis and reduction processes"
    ]
  },
  {
    "atomicNumber": 12,
    "symbol": "Mg",
    "name": "Magnesium",
    "group": 2,
    "period": 3,
    "category": "alkaline earth metal",
    "density": "1.74 g/cm^3",
    "meltingPoint": "650 C",
    "engineeringApplications": [
      "Lightweight structural alloys (automotive/aerospace)",
      "Sacrificial anodes for corrosion protection",
      "Additive alloying in aluminum processing"
    ]
  },
  {
    "atomicNumber": 13,
    "symbol": "Al",
    "name": "Aluminum",
    "group": 13,
    "period": 3,
    "category": "transition metal",
    "density": "2.70 g/cm^3",
    "meltingPoint": "660.32 C",
    "engineeringApplications": [
      "Lightweight structural components",
      "Electrical conductors and busbars",
      "Corrosion-resistant packaging and heat exchangers"
    ]
  },
  {
    "atomicNumber": 14,
    "symbol": "Si",
    "name": "Silicon",
    "group": 14,
    "period": 3,
    "category": "metalloid",
    "density": "2.33 g/cm^3",
    "meltingPoint": "1414 C",
    "engineeringApplications": [
      "Semiconductor devices and ICs",
      "Solar photovoltaics",
      "Silicone polymers and sealants"
    ]
  },
  {
    "atomicNumber": 15,
    "symbol": "P",
    "name": "Phosphorus",
    "group": 15,
    "period": 3,
    "category": "nonmetal",
    "density": "1.82 g/cm^3 (white)",
    "meltingPoint": "44.15 C (white)",
    "engineeringApplications": [
      "Alloying and deoxidation in metallurgy",
      "Flame retardant chemistries",
      "Semiconductor doping (n-type)"
    ]
  },
  {
    "atomicNumber": 16,
    "symbol": "S",
    "name": "Sulfur",
    "group": 16,
    "period": 3,
    "category": "nonmetal",
    "density": "2.07 g/cm^3",
    "meltingPoint": "115.21 C",
    "engineeringApplications": [
      "Vulcanization of rubber",
      "Battery chemistries (Li-S research)",
      "Chemical processing and fertilizers"
    ]
  },
  {
    "atomicNumber": 17,
    "symbol": "Cl",
    "name": "Chlorine",
    "group": 17,
    "period": 3,
    "category": "nonmetal",
    "density": "0.003214 g/cm^3 (gas, STP)",
    "meltingPoint": "-101.5 C",
    "engineeringApplications": [
      "PVC and chlorinated polymer production",
      "Water treatment and disinfection",
      "Etchants and process chemistry"
    ]
  },
  {
    "atomicNumber": 18,
    "symbol": "Ar",
    "name": "Argon",
    "group": 18,
    "period": 3,
    "category": "noble gas",
    "density": "0.001784 g/cm^3 (gas, STP)",
    "meltingPoint": "-189.34 C",
    "engineeringApplications": [
      "Shielding gas for welding",
      "Inert atmosphere for materials processing",
      "Insulating gas in double-pane windows"
    ]
  },
  {
    "atomicNumber": 19,
    "symbol": "K",
    "name": "Potassium",
    "group": 1,
    "period": 4,
    "category": "alkali metal",
    "density": "0.862 g/cm^3",
    "meltingPoint": "63.5 C",
    "engineeringApplications": [
      "Specialty glass formulations",
      "Chemical synthesis and reduction",
      "Alkali activation in materials processing"
    ]
  },
  {
    "atomicNumber": 20,
    "symbol": "Ca",
    "name": "Calcium",
    "group": 2,
    "period": 4,
    "category": "alkaline earth metal",
    "density": "1.55 g/cm^3",
    "meltingPoint": "842 C",
    "engineeringApplications": [
      "Steelmaking desulfurization and deoxidation",
      "Cement and construction chemistry (as compounds)",
      "Biomaterials (hydroxyapatite systems)"
    ]
  },
  {
    "atomicNumber": 21,
    "symbol": "Sc",
    "name": "Scandium",
    "group": 3,
    "period": 4,
    "category": "transition metal",
    "density": "2.99 g/cm^3",
    "meltingPoint": "1541 C",
    "engineeringApplications": [
      "Al-Sc alloys for high strength and weldability",
      "Aerospace and sporting goods alloys",
      "Solid oxide fuel cell research"
    ]
  },
  {
    "atomicNumber": 22,
    "symbol": "Ti",
    "name": "Titanium",
    "group": 4,
    "period": 4,
    "category": "transition metal",
    "density": "4.51 g/cm^3",
    "meltingPoint": "1668 C",
    "engineeringApplications": [
      "Corrosion-resistant aerospace structures",
      "Biomedical implants",
      "High-performance fasteners"
    ]
  },
  {
    "atomicNumber": 23,
    "symbol": "V",
    "name": "Vanadium",
    "group": 5,
    "period": 4,
    "category": "transition metal",
    "density": "6.11 g/cm^3",
    "meltingPoint": "1910 C",
    "engineeringApplications": [
      "Strengthening alloying in steels",
      "Vanadium redox flow batteries",
      "High-temperature turbine materials (alloying)"
    ]
  },
  {
    "atomicNumber": 24,
    "symbol": "Cr",
    "name": "Chromium",
    "group": 6,
    "period": 4,
    "category": "transition metal",
    "density": "7.19 g/cm^3",
    "meltingPoint": "1907 C",
    "engineeringApplications": [
      "Stainless steel corrosion resistance",
      "Hard chrome coatings and wear surfaces",
      "Superalloy oxidation resistance"
    ]
  },
  {
    "atomicNumber": 25,
    "symbol": "Mn",
    "name": "Manganese",
    "group": 7,
    "period": 4,
    "category": "transition metal",
    "density": "7.21 g/cm^3",
    "meltingPoint": "1246 C",
    "engineeringApplications": [
      "Steel deoxidizer and alloying element",
      "Battery cathode materials (LMO/NMC components)",
      "Wear-resistant steels"
    ]
  },
  {
    "atomicNumber": 26,
    "symbol": "Fe",
    "name": "Iron",
    "group": 8,
    "period": 4,
    "category": "transition metal",
    "density": "7.87 g/cm^3",
    "meltingPoint": "1538 C",
    "engineeringApplications": [
      "Structural steels for infrastructure",
      "Cast irons for machine components",
      "Magnetic cores and electrical steels"
    ]
  },
  {
    "atomicNumber": 27,
    "symbol": "Co",
    "name": "Cobalt",
    "group": 9,
    "period": 4,
    "category": "transition metal",
    "density": "8.90 g/cm^3",
    "meltingPoint": "1495 C",
    "engineeringApplications": [
      "Superalloys for high-temperature turbines",
      "Li-ion battery cathodes (NMC/NCA components)",
      "Hardmetals and wear-resistant coatings"
    ]
  },
  {
    "atomicNumber": 28,
    "symbol": "Ni",
    "name": "Nickel",
    "group": 10,
    "period": 4,
    "category": "transition metal",
    "density": "8.90 g/cm^3",
    "meltingPoint": "1455 C",
    "engineeringApplications": [
      "Corrosion-resistant alloys (Inconel family)",
      "Electroplating and surface engineering",
      "Battery materials and catalysts"
    ]
  },
  {
    "atomicNumber": 29,
    "symbol": "Cu",
    "name": "Copper",
    "group": 11,
    "period": 4,
    "category": "transition metal",
    "density": "8.96 g/cm^3",
    "meltingPoint": "1084.62 C",
    "engineeringApplications": [
      "Electrical wiring and power electronics",
      "Heat exchangers and thermal management",
      "Antimicrobial surfaces"
    ]
  },
  {
    "atomicNumber": 30,
    "symbol": "Zn",
    "name": "Zinc",
    "group": 12,
    "period": 4,
    "category": "transition metal",
    "density": "7.14 g/cm^3",
    "meltingPoint": "419.53 C",
    "engineeringApplications": [
      "Galvanizing for corrosion protection",
      "Die casting alloys",
      "Zn-based batteries and coatings"
    ]
  },
  {
    "atomicNumber": 31,
    "symbol": "Ga",
    "name": "Gallium",
    "group": 13,
    "period": 4,
    "category": "transition metal",
    "density": "5.91 g/cm^3",
    "meltingPoint": "29.76 C",
    "engineeringApplications": [
      "GaN and GaAs semiconductors",
      "High-frequency RF electronics",
      "LEDs and optoelectronics"
    ]
  },
  {
    "atomicNumber": 32,
    "symbol": "Ge",
    "name": "Germanium",
    "group": 14,
    "period": 4,
    "category": "metalloid",
    "density": "5.32 g/cm^3",
    "meltingPoint": "938.25 C",
    "engineeringApplications": [
      "Infrared optics and detectors",
      "Semiconductor devices and photonics",
      "High-index optical materials"
    ]
  },
  {
    "atomicNumber": 33,
    "symbol": "As",
    "name": "Arsenic",
    "group": 15,
    "period": 4,
    "category": "metalloid",
    "density": "5.73 g/cm^3",
    "meltingPoint": "Sublimes ~615 C",
    "engineeringApplications": [
      "GaAs semiconductor devices",
      "Alloying in specialty materials",
      "Photovoltaics research"
    ]
  },
  {
    "atomicNumber": 34,
    "symbol": "Se",
    "name": "Selenium",
    "group": 16,
    "period": 4,
    "category": "nonmetal",
    "density": "4.81 g/cm^3",
    "meltingPoint": "221 C",
    "engineeringApplications": [
      "Photoconductors and sensors",
      "Thin-film solar cells (CIGS context)",
      "Glass decolorizing and additives"
    ]
  },
  {
    "atomicNumber": 35,
    "symbol": "Br",
    "name": "Bromine",
    "group": 17,
    "period": 4,
    "category": "nonmetal",
    "density": "3.12 g/cm^3 (liquid)",
    "meltingPoint": "-7.2 C",
    "engineeringApplications": [
      "Flame retardant chemistries",
      "Specialty polymers and intermediates",
      "Water treatment chemicals"
    ]
  },
  {
    "atomicNumber": 36,
    "symbol": "Kr",
    "name": "Krypton",
    "group": 18,
    "period": 4,
    "category": "noble gas",
    "density": "0.003749 g/cm^3 (gas, STP)",
    "meltingPoint": "-157.36 C",
    "engineeringApplications": [
      "High-performance lighting and flash lamps",
      "Insulating gas in specialty windows",
      "Laser and plasma applications"
    ]
  }
]
